V -t * -v 1.0a5 -a 0
A -t * -n 1 -p 0 -o 0x7fffffff -c 30 -a 1
A -t * -h 1 -m 1073741823 -s 0
n -t * -a 0 -s 0 -S UP -v circle -c black -i black
n -t * -a 1 -s 1 -S UP -v circle -c black -i black
n -t * -a 2 -s 2 -S UP -v circle -c black -i black
n -t * -a 3 -s 3 -S UP -v circle -c black -i black
n -t * -a 4 -s 4 -S UP -v circle -c black -i black
n -t * -a 5 -s 5 -S UP -v circle -c black -i black
n -t * -a 6 -s 6 -S UP -v circle -c black -i black
n -t * -a 7 -s 7 -S UP -v circle -c black -i black
n -t * -a 8 -s 8 -S UP -v circle -c black -i black
n -t * -a 9 -s 9 -S UP -v circle -c black -i black
n -t * -a 10 -s 10 -S UP -v circle -c black -i black
X -t * -n 11 -r 100Mb -D 20ms -o left
L -t * -s 11 -d 0 -o up
L -t * -s 11 -d 1 -o down
L -t * -s 11 -d 2 -o up
L -t * -s 11 -d 3 -o down
L -t * -s 11 -d 4 -o up
L -t * -s 11 -d 5 -o down
L -t * -s 11 -d 6 -o up
L -t * -s 11 -d 7 -o down
L -t * -s 11 -d 8 -o up
L -t * -s 11 -d 9 -o down
L -t * -s 11 -d 10 -o up
h -t 0.75 -s 0 -d 11 -p tcp -e 40 -c 0 -i 0 -a 0 -x {0.0 3.0 0 ------- null}
+ -t 0.77 -s 0 -d 11 -p tcp -e 40 -c 0 -i 0 -a 0 -x {0.0 3.0 0 ------- null}
- -t 0.77 -s 0 -d 11 -p tcp -e 40 -c 0 -i 0 -a 0 -x {0.0 3.0 0 ------- null}
h -t 0.77 -s 0 -d 11 -p tcp -e 40 -c 0 -i 0 -a 0 -x {0.0 3.0 -1 ------- null}
r -t 0.79000912 -s 11 -d 3 -p tcp -e 40 -c 0 -i 0 -a 0 -x {0.0 3.0 0 ------- null}
h -t 0.79000912 -s 3 -d 11 -p ack -e 40 -c 0 -i 1 -a 0 -x {3.0 0.0 0 ------- null}
+ -t 0.81000912 -s 3 -d 11 -p ack -e 40 -c 0 -i 1 -a 0 -x {3.0 0.0 0 ------- null}
- -t 0.81000912 -s 3 -d 11 -p ack -e 40 -c 0 -i 1 -a 0 -x {3.0 0.0 0 ------- null}
h -t 0.81000912 -s 3 -d 11 -p ack -e 40 -c 0 -i 1 -a 0 -x {3.0 0.0 -1 ------- null}
r -t 0.83001824 -s 11 -d 0 -p ack -e 40 -c 0 -i 1 -a 0 -x {3.0 0.0 0 ------- null}
h -t 0.83001824 -s 0 -d 11 -p tcp -e 1040 -c 0 -i 2 -a 0 -x {0.0 3.0 1 ------- null}
h -t 0.83001824 -s 0 -d 11 -p tcp -e 1040 -c 0 -i 3 -a 0 -x {0.0 3.0 2 ------- null}
+ -t 0.85001824 -s 0 -d 11 -p tcp -e 1040 -c 0 -i 2 -a 0 -x {0.0 3.0 1 ------- null}
- -t 0.85001824 -s 0 -d 11 -p tcp -e 1040 -c 0 -i 2 -a 0 -x {0.0 3.0 1 ------- null}
h -t 0.85001824 -s 0 -d 11 -p tcp -e 1040 -c 0 -i 2 -a 0 -x {0.0 3.0 -1 ------- null}
+ -t 0.85001824 -s 0 -d 11 -p tcp -e 1040 -c 0 -i 3 -a 0 -x {0.0 3.0 2 ------- null}
- -t 0.85010352 -s 0 -d 11 -p tcp -e 1040 -c 0 -i 3 -a 0 -x {0.0 3.0 2 ------- null}
h -t 0.85010352 -s 0 -d 11 -p tcp -e 1040 -c 0 -i 3 -a 0 -x {0.0 3.0 -1 ------- null}
r -t 0.87010656 -s 11 -d 3 -p tcp -e 1040 -c 0 -i 2 -a 0 -x {0.0 3.0 1 ------- null}
h -t 0.87010656 -s 3 -d 11 -p ack -e 40 -c 0 -i 4 -a 0 -x {3.0 0.0 1 ------- null}
r -t 0.87019184 -s 11 -d 3 -p tcp -e 1040 -c 0 -i 3 -a 0 -x {0.0 3.0 2 ------- null}
h -t 0.87019184 -s 3 -d 11 -p ack -e 40 -c 0 -i 5 -a 0 -x {3.0 0.0 2 ------- null}
+ -t 0.89010656 -s 3 -d 11 -p ack -e 40 -c 0 -i 4 -a 0 -x {3.0 0.0 1 ------- null}
- -t 0.89010656 -s 3 -d 11 -p ack -e 40 -c 0 -i 4 -a 0 -x {3.0 0.0 1 ------- null}
h -t 0.89010656 -s 3 -d 11 -p ack -e 40 -c 0 -i 4 -a 0 -x {3.0 0.0 -1 ------- null}
+ -t 0.89019184 -s 3 -d 11 -p ack -e 40 -c 0 -i 5 -a 0 -x {3.0 0.0 2 ------- null}
- -t 0.89019184 -s 3 -d 11 -p ack -e 40 -c 0 -i 5 -a 0 -x {3.0 0.0 2 ------- null}
h -t 0.89019184 -s 3 -d 11 -p ack -e 40 -c 0 -i 5 -a 0 -x {3.0 0.0 -1 ------- null}
r -t 0.91011568 -s 11 -d 0 -p ack -e 40 -c 0 -i 4 -a 0 -x {3.0 0.0 1 ------- null}
h -t 0.91011568 -s 0 -d 11 -p tcp -e 1040 -c 0 -i 6 -a 0 -x {0.0 3.0 3 ------- null}
h -t 0.91011568 -s 0 -d 11 -p tcp -e 1040 -c 0 -i 7 -a 0 -x {0.0 3.0 4 ------- null}
r -t 0.91020096 -s 11 -d 0 -p ack -e 40 -c 0 -i 5 -a 0 -x {3.0 0.0 2 ------- null}
h -t 0.91020096 -s 0 -d 11 -p tcp -e 1040 -c 0 -i 8 -a 0 -x {0.0 3.0 5 ------- null}
h -t 0.91020096 -s 0 -d 11 -p tcp -e 1040 -c 0 -i 9 -a 0 -x {0.0 3.0 6 ------- null}
+ -t 0.93011568 -s 0 -d 11 -p tcp -e 1040 -c 0 -i 6 -a 0 -x {0.0 3.0 3 ------- null}
- -t 0.93011568 -s 0 -d 11 -p tcp -e 1040 -c 0 -i 6 -a 0 -x {0.0 3.0 3 ------- null}
h -t 0.93011568 -s 0 -d 11 -p tcp -e 1040 -c 0 -i 6 -a 0 -x {0.0 3.0 -1 ------- null}
+ -t 0.93011568 -s 0 -d 11 -p tcp -e 1040 -c 0 -i 7 -a 0 -x {0.0 3.0 4 ------- null}
+ -t 0.93020096 -s 0 -d 11 -p tcp -e 1040 -c 0 -i 8 -a 0 -x {0.0 3.0 5 ------- null}
+ -t 0.93020096 -s 0 -d 11 -p tcp -e 1040 -c 0 -i 9 -a 0 -x {0.0 3.0 6 ------- null}
- -t 0.93020096 -s 0 -d 11 -p tcp -e 1040 -c 0 -i 7 -a 0 -x {0.0 3.0 4 ------- null}
h -t 0.93020096 -s 0 -d 11 -p tcp -e 1040 -c 0 -i 7 -a 0 -x {0.0 3.0 -1 ------- null}
- -t 0.93028624 -s 0 -d 11 -p tcp -e 1040 -c 0 -i 8 -a 0 -x {0.0 3.0 5 ------- null}
h -t 0.93028624 -s 0 -d 11 -p tcp -e 1040 -c 0 -i 8 -a 0 -x {0.0 3.0 -1 ------- null}
- -t 0.93037152 -s 0 -d 11 -p tcp -e 1040 -c 0 -i 9 -a 0 -x {0.0 3.0 6 ------- null}
h -t 0.93037152 -s 0 -d 11 -p tcp -e 1040 -c 0 -i 9 -a 0 -x {0.0 3.0 -1 ------- null}
r -t 0.950204 -s 11 -d 3 -p tcp -e 1040 -c 0 -i 6 -a 0 -x {0.0 3.0 3 ------- null}
h -t 0.950204 -s 3 -d 11 -p ack -e 40 -c 0 -i 10 -a 0 -x {3.0 0.0 3 ------- null}
r -t 0.95028928 -s 11 -d 3 -p tcp -e 1040 -c 0 -i 7 -a 0 -x {0.0 3.0 4 ------- null}
h -t 0.95028928 -s 3 -d 11 -p ack -e 40 -c 0 -i 11 -a 0 -x {3.0 0.0 4 ------- null}
r -t 0.95037456 -s 11 -d 3 -p tcp -e 1040 -c 0 -i 8 -a 0 -x {0.0 3.0 5 ------- null}
h -t 0.95037456 -s 3 -d 11 -p ack -e 40 -c 0 -i 12 -a 0 -x {3.0 0.0 5 ------- null}
r -t 0.95045984 -s 11 -d 3 -p tcp -e 1040 -c 0 -i 9 -a 0 -x {0.0 3.0 6 ------- null}
h -t 0.95045984 -s 3 -d 11 -p ack -e 40 -c 0 -i 13 -a 0 -x {3.0 0.0 6 ------- null}
+ -t 0.970204 -s 3 -d 11 -p ack -e 40 -c 0 -i 10 -a 0 -x {3.0 0.0 3 ------- null}
- -t 0.970204 -s 3 -d 11 -p ack -e 40 -c 0 -i 10 -a 0 -x {3.0 0.0 3 ------- null}
h -t 0.970204 -s 3 -d 11 -p ack -e 40 -c 0 -i 10 -a 0 -x {3.0 0.0 -1 ------- null}
+ -t 0.97028928 -s 3 -d 11 -p ack -e 40 -c 0 -i 11 -a 0 -x {3.0 0.0 4 ------- null}
- -t 0.97028928 -s 3 -d 11 -p ack -e 40 -c 0 -i 11 -a 0 -x {3.0 0.0 4 ------- null}
h -t 0.97028928 -s 3 -d 11 -p ack -e 40 -c 0 -i 11 -a 0 -x {3.0 0.0 -1 ------- null}
+ -t 0.97037456 -s 3 -d 11 -p ack -e 40 -c 0 -i 12 -a 0 -x {3.0 0.0 5 ------- null}
- -t 0.97037456 -s 3 -d 11 -p ack -e 40 -c 0 -i 12 -a 0 -x {3.0 0.0 5 ------- null}
h -t 0.97037456 -s 3 -d 11 -p ack -e 40 -c 0 -i 12 -a 0 -x {3.0 0.0 -1 ------- null}
+ -t 0.97045984 -s 3 -d 11 -p ack -e 40 -c 0 -i 13 -a 0 -x {3.0 0.0 6 ------- null}
- -t 0.97045984 -s 3 -d 11 -p ack -e 40 -c 0 -i 13 -a 0 -x {3.0 0.0 6 ------- null}
h -t 0.97045984 -s 3 -d 11 -p ack -e 40 -c 0 -i 13 -a 0 -x {3.0 0.0 -1 ------- null}
r -t 0.99021312 -s 11 -d 0 -p ack -e 40 -c 0 -i 10 -a 0 -x {3.0 0.0 3 ------- null}
h -t 0.99021312 -s 0 -d 11 -p tcp -e 1040 -c 0 -i 14 -a 0 -x {0.0 3.0 7 ------- null}
h -t 0.99021312 -s 0 -d 11 -p tcp -e 1040 -c 0 -i 15 -a 0 -x {0.0 3.0 8 ------- null}
r -t 0.9902984 -s 11 -d 0 -p ack -e 40 -c 0 -i 11 -a 0 -x {3.0 0.0 4 ------- null}
h -t 0.9902984 -s 0 -d 11 -p tcp -e 1040 -c 0 -i 16 -a 0 -x {0.0 3.0 9 ------- null}
h -t 0.9902984 -s 0 -d 11 -p tcp -e 1040 -c 0 -i 17 -a 0 -x {0.0 3.0 10 ------- null}
r -t 0.99038368 -s 11 -d 0 -p ack -e 40 -c 0 -i 12 -a 0 -x {3.0 0.0 5 ------- null}
h -t 0.99038368 -s 0 -d 11 -p tcp -e 1040 -c 0 -i 18 -a 0 -x {0.0 3.0 11 ------- null}
h -t 0.99038368 -s 0 -d 11 -p tcp -e 1040 -c 0 -i 19 -a 0 -x {0.0 3.0 12 ------- null}
r -t 0.99046896 -s 11 -d 0 -p ack -e 40 -c 0 -i 13 -a 0 -x {3.0 0.0 6 ------- null}
h -t 0.99046896 -s 0 -d 11 -p tcp -e 1040 -c 0 -i 20 -a 0 -x {0.0 3.0 13 ------- null}
h -t 0.99046896 -s 0 -d 11 -p tcp -e 1040 -c 0 -i 21 -a 0 -x {0.0 3.0 14 ------- null}
+ -t 1.01021312 -s 0 -d 11 -p tcp -e 1040 -c 0 -i 14 -a 0 -x {0.0 3.0 7 ------- null}
- -t 1.01021312 -s 0 -d 11 -p tcp -e 1040 -c 0 -i 14 -a 0 -x {0.0 3.0 7 ------- null}
h -t 1.01021312 -s 0 -d 11 -p tcp -e 1040 -c 0 -i 14 -a 0 -x {0.0 3.0 -1 ------- null}
+ -t 1.01021312 -s 0 -d 11 -p tcp -e 1040 -c 0 -i 15 -a 0 -x {0.0 3.0 8 ------- null}
+ -t 1.0102984 -s 0 -d 11 -p tcp -e 1040 -c 0 -i 16 -a 0 -x {0.0 3.0 9 ------- null}
+ -t 1.0102984 -s 0 -d 11 -p tcp -e 1040 -c 0 -i 17 -a 0 -x {0.0 3.0 10 ------- null}
- -t 1.0102984 -s 0 -d 11 -p tcp -e 1040 -c 0 -i 15 -a 0 -x {0.0 3.0 8 ------- null}
h -t 1.0102984 -s 0 -d 11 -p tcp -e 1040 -c 0 -i 15 -a 0 -x {0.0 3.0 -1 ------- null}
- -t 1.01038368 -s 0 -d 11 -p tcp -e 1040 -c 0 -i 16 -a 0 -x {0.0 3.0 9 ------- null}
h -t 1.01038368 -s 0 -d 11 -p tcp -e 1040 -c 0 -i 16 -a 0 -x {0.0 3.0 -1 ------- null}
+ -t 1.01038368 -s 0 -d 11 -p tcp -e 1040 -c 0 -i 18 -a 0 -x {0.0 3.0 11 ------- null}
+ -t 1.01038368 -s 0 -d 11 -p tcp -e 1040 -c 0 -i 19 -a 0 -x {0.0 3.0 12 ------- null}
- -t 1.01046896 -s 0 -d 11 -p tcp -e 1040 -c 0 -i 17 -a 0 -x {0.0 3.0 10 ------- null}
h -t 1.01046896 -s 0 -d 11 -p tcp -e 1040 -c 0 -i 17 -a 0 -x {0.0 3.0 -1 ------- null}
+ -t 1.01046896 -s 0 -d 11 -p tcp -e 1040 -c 0 -i 20 -a 0 -x {0.0 3.0 13 ------- null}
+ -t 1.01046896 -s 0 -d 11 -p tcp -e 1040 -c 0 -i 21 -a 0 -x {0.0 3.0 14 ------- null}
- -t 1.01055424 -s 0 -d 11 -p tcp -e 1040 -c 0 -i 18 -a 0 -x {0.0 3.0 11 ------- null}
h -t 1.01055424 -s 0 -d 11 -p tcp -e 1040 -c 0 -i 18 -a 0 -x {0.0 3.0 -1 ------- null}
- -t 1.01063952 -s 0 -d 11 -p tcp -e 1040 -c 0 -i 19 -a 0 -x {0.0 3.0 12 ------- null}
h -t 1.01063952 -s 0 -d 11 -p tcp -e 1040 -c 0 -i 19 -a 0 -x {0.0 3.0 -1 ------- null}
- -t 1.0107248 -s 0 -d 11 -p tcp -e 1040 -c 0 -i 20 -a 0 -x {0.0 3.0 13 ------- null}
h -t 1.0107248 -s 0 -d 11 -p tcp -e 1040 -c 0 -i 20 -a 0 -x {0.0 3.0 -1 ------- null}
- -t 1.01081008 -s 0 -d 11 -p tcp -e 1040 -c 0 -i 21 -a 0 -x {0.0 3.0 14 ------- null}
h -t 1.01081008 -s 0 -d 11 -p tcp -e 1040 -c 0 -i 21 -a 0 -x {0.0 3.0 -1 ------- null}
r -t 1.03030144 -s 11 -d 3 -p tcp -e 1040 -c 0 -i 14 -a 0 -x {0.0 3.0 7 ------- null}
h -t 1.03030144 -s 3 -d 11 -p ack -e 40 -c 0 -i 22 -a 0 -x {3.0 0.0 7 ------- null}
r -t 1.03038672 -s 11 -d 3 -p tcp -e 1040 -c 0 -i 15 -a 0 -x {0.0 3.0 8 ------- null}
h -t 1.03038672 -s 3 -d 11 -p ack -e 40 -c 0 -i 23 -a 0 -x {3.0 0.0 8 ------- null}
r -t 1.030472 -s 11 -d 3 -p tcp -e 1040 -c 0 -i 16 -a 0 -x {0.0 3.0 9 ------- null}
h -t 1.030472 -s 3 -d 11 -p ack -e 40 -c 0 -i 24 -a 0 -x {3.0 0.0 9 ------- null}
r -t 1.03055728 -s 11 -d 3 -p tcp -e 1040 -c 0 -i 17 -a 0 -x {0.0 3.0 10 ------- null}
h -t 1.03055728 -s 3 -d 11 -p ack -e 40 -c 0 -i 25 -a 0 -x {3.0 0.0 10 ------- null}
r -t 1.03064256 -s 11 -d 3 -p tcp -e 1040 -c 0 -i 18 -a 0 -x {0.0 3.0 11 ------- null}
h -t 1.03064256 -s 3 -d 11 -p ack -e 40 -c 0 -i 26 -a 0 -x {3.0 0.0 11 ------- null}
r -t 1.03072784 -s 11 -d 3 -p tcp -e 1040 -c 0 -i 19 -a 0 -x {0.0 3.0 12 ------- null}
h -t 1.03072784 -s 3 -d 11 -p ack -e 40 -c 0 -i 27 -a 0 -x {3.0 0.0 12 ------- null}
r -t 1.03081312 -s 11 -d 3 -p tcp -e 1040 -c 0 -i 20 -a 0 -x {0.0 3.0 13 ------- null}
h -t 1.03081312 -s 3 -d 11 -p ack -e 40 -c 0 -i 28 -a 0 -x {3.0 0.0 13 ------- null}
r -t 1.0308984 -s 11 -d 3 -p tcp -e 1040 -c 0 -i 21 -a 0 -x {0.0 3.0 14 ------- null}
h -t 1.0308984 -s 3 -d 11 -p ack -e 40 -c 0 -i 29 -a 0 -x {3.0 0.0 14 ------- null}
+ -t 1.05030144 -s 3 -d 11 -p ack -e 40 -c 0 -i 22 -a 0 -x {3.0 0.0 7 ------- null}
- -t 1.05030144 -s 3 -d 11 -p ack -e 40 -c 0 -i 22 -a 0 -x {3.0 0.0 7 ------- null}
h -t 1.05030144 -s 3 -d 11 -p ack -e 40 -c 0 -i 22 -a 0 -x {3.0 0.0 -1 ------- null}
+ -t 1.05038672 -s 3 -d 11 -p ack -e 40 -c 0 -i 23 -a 0 -x {3.0 0.0 8 ------- null}
- -t 1.05038672 -s 3 -d 11 -p ack -e 40 -c 0 -i 23 -a 0 -x {3.0 0.0 8 ------- null}
h -t 1.05038672 -s 3 -d 11 -p ack -e 40 -c 0 -i 23 -a 0 -x {3.0 0.0 -1 ------- null}
+ -t 1.050472 -s 3 -d 11 -p ack -e 40 -c 0 -i 24 -a 0 -x {3.0 0.0 9 ------- null}
- -t 1.050472 -s 3 -d 11 -p ack -e 40 -c 0 -i 24 -a 0 -x {3.0 0.0 9 ------- null}
h -t 1.050472 -s 3 -d 11 -p ack -e 40 -c 0 -i 24 -a 0 -x {3.0 0.0 -1 ------- null}
+ -t 1.05055728 -s 3 -d 11 -p ack -e 40 -c 0 -i 25 -a 0 -x {3.0 0.0 10 ------- null}
- -t 1.05055728 -s 3 -d 11 -p ack -e 40 -c 0 -i 25 -a 0 -x {3.0 0.0 10 ------- null}
h -t 1.05055728 -s 3 -d 11 -p ack -e 40 -c 0 -i 25 -a 0 -x {3.0 0.0 -1 ------- null}
+ -t 1.05064256 -s 3 -d 11 -p ack -e 40 -c 0 -i 26 -a 0 -x {3.0 0.0 11 ------- null}
- -t 1.05064256 -s 3 -d 11 -p ack -e 40 -c 0 -i 26 -a 0 -x {3.0 0.0 11 ------- null}
h -t 1.05064256 -s 3 -d 11 -p ack -e 40 -c 0 -i 26 -a 0 -x {3.0 0.0 -1 ------- null}
+ -t 1.05072784 -s 3 -d 11 -p ack -e 40 -c 0 -i 27 -a 0 -x {3.0 0.0 12 ------- null}
- -t 1.05072784 -s 3 -d 11 -p ack -e 40 -c 0 -i 27 -a 0 -x {3.0 0.0 12 ------- null}
h -t 1.05072784 -s 3 -d 11 -p ack -e 40 -c 0 -i 27 -a 0 -x {3.0 0.0 -1 ------- null}
+ -t 1.05081312 -s 3 -d 11 -p ack -e 40 -c 0 -i 28 -a 0 -x {3.0 0.0 13 ------- null}
- -t 1.05081312 -s 3 -d 11 -p ack -e 40 -c 0 -i 28 -a 0 -x {3.0 0.0 13 ------- null}
h -t 1.05081312 -s 3 -d 11 -p ack -e 40 -c 0 -i 28 -a 0 -x {3.0 0.0 -1 ------- null}
+ -t 1.0508984 -s 3 -d 11 -p ack -e 40 -c 0 -i 29 -a 0 -x {3.0 0.0 14 ------- null}
- -t 1.0508984 -s 3 -d 11 -p ack -e 40 -c 0 -i 29 -a 0 -x {3.0 0.0 14 ------- null}
h -t 1.0508984 -s 3 -d 11 -p ack -e 40 -c 0 -i 29 -a 0 -x {3.0 0.0 -1 ------- null}
r -t 1.07031056 -s 11 -d 0 -p ack -e 40 -c 0 -i 22 -a 0 -x {3.0 0.0 7 ------- null}
h -t 1.07031056 -s 0 -d 11 -p tcp -e 1040 -c 0 -i 30 -a 0 -x {0.0 3.0 15 ------- null}
h -t 1.07031056 -s 0 -d 11 -p tcp -e 1040 -c 0 -i 31 -a 0 -x {0.0 3.0 16 ------- null}
r -t 1.07039584 -s 11 -d 0 -p ack -e 40 -c 0 -i 23 -a 0 -x {3.0 0.0 8 ------- null}
h -t 1.07039584 -s 0 -d 11 -p tcp -e 1040 -c 0 -i 32 -a 0 -x {0.0 3.0 17 ------- null}
h -t 1.07039584 -s 0 -d 11 -p tcp -e 1040 -c 0 -i 33 -a 0 -x {0.0 3.0 18 ------- null}
r -t 1.07048112 -s 11 -d 0 -p ack -e 40 -c 0 -i 24 -a 0 -x {3.0 0.0 9 ------- null}
h -t 1.07048112 -s 0 -d 11 -p tcp -e 1040 -c 0 -i 34 -a 0 -x {0.0 3.0 19 ------- null}
h -t 1.07048112 -s 0 -d 11 -p tcp -e 1040 -c 0 -i 35 -a 0 -x {0.0 3.0 20 ------- null}
r -t 1.0705664 -s 11 -d 0 -p ack -e 40 -c 0 -i 25 -a 0 -x {3.0 0.0 10 ------- null}
h -t 1.0705664 -s 0 -d 11 -p tcp -e 1040 -c 0 -i 36 -a 0 -x {0.0 3.0 21 ------- null}
h -t 1.0705664 -s 0 -d 11 -p tcp -e 1040 -c 0 -i 37 -a 0 -x {0.0 3.0 22 ------- null}
r -t 1.07065168 -s 11 -d 0 -p ack -e 40 -c 0 -i 26 -a 0 -x {3.0 0.0 11 ------- null}
h -t 1.07065168 -s 0 -d 11 -p tcp -e 1040 -c 0 -i 38 -a 0 -x {0.0 3.0 23 ------- null}
h -t 1.07065168 -s 0 -d 11 -p tcp -e 1040 -c 0 -i 39 -a 0 -x {0.0 3.0 24 ------- null}
r -t 1.07073696 -s 11 -d 0 -p ack -e 40 -c 0 -i 27 -a 0 -x {3.0 0.0 12 ------- null}
h -t 1.07073696 -s 0 -d 11 -p tcp -e 1040 -c 0 -i 40 -a 0 -x {0.0 3.0 25 ------- null}
h -t 1.07073696 -s 0 -d 11 -p tcp -e 1040 -c 0 -i 41 -a 0 -x {0.0 3.0 26 ------- null}
r -t 1.07082224 -s 11 -d 0 -p ack -e 40 -c 0 -i 28 -a 0 -x {3.0 0.0 13 ------- null}
h -t 1.07082224 -s 0 -d 11 -p tcp -e 1040 -c 0 -i 42 -a 0 -x {0.0 3.0 27 ------- null}
h -t 1.07082224 -s 0 -d 11 -p tcp -e 1040 -c 0 -i 43 -a 0 -x {0.0 3.0 28 ------- null}
r -t 1.07090752 -s 11 -d 0 -p ack -e 40 -c 0 -i 29 -a 0 -x {3.0 0.0 14 ------- null}
h -t 1.07090752 -s 0 -d 11 -p tcp -e 1040 -c 0 -i 44 -a 0 -x {0.0 3.0 29 ------- null}
h -t 1.07090752 -s 0 -d 11 -p tcp -e 1040 -c 0 -i 45 -a 0 -x {0.0 3.0 30 ------- null}
+ -t 1.09031056 -s 0 -d 11 -p tcp -e 1040 -c 0 -i 30 -a 0 -x {0.0 3.0 15 ------- null}
- -t 1.09031056 -s 0 -d 11 -p tcp -e 1040 -c 0 -i 30 -a 0 -x {0.0 3.0 15 ------- null}
h -t 1.09031056 -s 0 -d 11 -p tcp -e 1040 -c 0 -i 30 -a 0 -x {0.0 3.0 -1 ------- null}
+ -t 1.09031056 -s 0 -d 11 -p tcp -e 1040 -c 0 -i 31 -a 0 -x {0.0 3.0 16 ------- null}
+ -t 1.09039584 -s 0 -d 11 -p tcp -e 1040 -c 0 -i 32 -a 0 -x {0.0 3.0 17 ------- null}
+ -t 1.09039584 -s 0 -d 11 -p tcp -e 1040 -c 0 -i 33 -a 0 -x {0.0 3.0 18 ------- null}
- -t 1.09039584 -s 0 -d 11 -p tcp -e 1040 -c 0 -i 31 -a 0 -x {0.0 3.0 16 ------- null}
h -t 1.09039584 -s 0 -d 11 -p tcp -e 1040 -c 0 -i 31 -a 0 -x {0.0 3.0 -1 ------- null}
+ -t 1.09048112 -s 0 -d 11 -p tcp -e 1040 -c 0 -i 34 -a 0 -x {0.0 3.0 19 ------- null}
+ -t 1.09048112 -s 0 -d 11 -p tcp -e 1040 -c 0 -i 35 -a 0 -x {0.0 3.0 20 ------- null}
- -t 1.09048112 -s 0 -d 11 -p tcp -e 1040 -c 0 -i 32 -a 0 -x {0.0 3.0 17 ------- null}
h -t 1.09048112 -s 0 -d 11 -p tcp -e 1040 -c 0 -i 32 -a 0 -x {0.0 3.0 -1 ------- null}
+ -t 1.0905664 -s 0 -d 11 -p tcp -e 1040 -c 0 -i 36 -a 0 -x {0.0 3.0 21 ------- null}
+ -t 1.0905664 -s 0 -d 11 -p tcp -e 1040 -c 0 -i 37 -a 0 -x {0.0 3.0 22 ------- null}
- -t 1.0905664 -s 0 -d 11 -p tcp -e 1040 -c 0 -i 33 -a 0 -x {0.0 3.0 18 ------- null}
h -t 1.0905664 -s 0 -d 11 -p tcp -e 1040 -c 0 -i 33 -a 0 -x {0.0 3.0 -1 ------- null}
+ -t 1.09065168 -s 0 -d 11 -p tcp -e 1040 -c 0 -i 38 -a 0 -x {0.0 3.0 23 ------- null}
+ -t 1.09065168 -s 0 -d 11 -p tcp -e 1040 -c 0 -i 39 -a 0 -x {0.0 3.0 24 ------- null}
- -t 1.09065168 -s 0 -d 11 -p tcp -e 1040 -c 0 -i 34 -a 0 -x {0.0 3.0 19 ------- null}
h -t 1.09065168 -s 0 -d 11 -p tcp -e 1040 -c 0 -i 34 -a 0 -x {0.0 3.0 -1 ------- null}
+ -t 1.09073696 -s 0 -d 11 -p tcp -e 1040 -c 0 -i 40 -a 0 -x {0.0 3.0 25 ------- null}
+ -t 1.09073696 -s 0 -d 11 -p tcp -e 1040 -c 0 -i 41 -a 0 -x {0.0 3.0 26 ------- null}
- -t 1.09073696 -s 0 -d 11 -p tcp -e 1040 -c 0 -i 35 -a 0 -x {0.0 3.0 20 ------- null}
h -t 1.09073696 -s 0 -d 11 -p tcp -e 1040 -c 0 -i 35 -a 0 -x {0.0 3.0 -1 ------- null}
+ -t 1.09082224 -s 0 -d 11 -p tcp -e 1040 -c 0 -i 42 -a 0 -x {0.0 3.0 27 ------- null}
+ -t 1.09082224 -s 0 -d 11 -p tcp -e 1040 -c 0 -i 43 -a 0 -x {0.0 3.0 28 ------- null}
- -t 1.09082224 -s 0 -d 11 -p tcp -e 1040 -c 0 -i 36 -a 0 -x {0.0 3.0 21 ------- null}
h -t 1.09082224 -s 0 -d 11 -p tcp -e 1040 -c 0 -i 36 -a 0 -x {0.0 3.0 -1 ------- null}
+ -t 1.09090752 -s 0 -d 11 -p tcp -e 1040 -c 0 -i 44 -a 0 -x {0.0 3.0 29 ------- null}
+ -t 1.09090752 -s 0 -d 11 -p tcp -e 1040 -c 0 -i 45 -a 0 -x {0.0 3.0 30 ------- null}
- -t 1.09090752 -s 0 -d 11 -p tcp -e 1040 -c 0 -i 37 -a 0 -x {0.0 3.0 22 ------- null}
h -t 1.09090752 -s 0 -d 11 -p tcp -e 1040 -c 0 -i 37 -a 0 -x {0.0 3.0 -1 ------- null}
- -t 1.0909928 -s 0 -d 11 -p tcp -e 1040 -c 0 -i 38 -a 0 -x {0.0 3.0 23 ------- null}
h -t 1.0909928 -s 0 -d 11 -p tcp -e 1040 -c 0 -i 38 -a 0 -x {0.0 3.0 -1 ------- null}
- -t 1.09107808 -s 0 -d 11 -p tcp -e 1040 -c 0 -i 39 -a 0 -x {0.0 3.0 24 ------- null}
h -t 1.09107808 -s 0 -d 11 -p tcp -e 1040 -c 0 -i 39 -a 0 -x {0.0 3.0 -1 ------- null}
- -t 1.09116336 -s 0 -d 11 -p tcp -e 1040 -c 0 -i 40 -a 0 -x {0.0 3.0 25 ------- null}
h -t 1.09116336 -s 0 -d 11 -p tcp -e 1040 -c 0 -i 40 -a 0 -x {0.0 3.0 -1 ------- null}
- -t 1.09124864 -s 0 -d 11 -p tcp -e 1040 -c 0 -i 41 -a 0 -x {0.0 3.0 26 ------- null}
h -t 1.09124864 -s 0 -d 11 -p tcp -e 1040 -c 0 -i 41 -a 0 -x {0.0 3.0 -1 ------- null}
- -t 1.09133392 -s 0 -d 11 -p tcp -e 1040 -c 0 -i 42 -a 0 -x {0.0 3.0 27 ------- null}
h -t 1.09133392 -s 0 -d 11 -p tcp -e 1040 -c 0 -i 42 -a 0 -x {0.0 3.0 -1 ------- null}
- -t 1.0914192 -s 0 -d 11 -p tcp -e 1040 -c 0 -i 43 -a 0 -x {0.0 3.0 28 ------- null}
h -t 1.0914192 -s 0 -d 11 -p tcp -e 1040 -c 0 -i 43 -a 0 -x {0.0 3.0 -1 ------- null}
- -t 1.09150448 -s 0 -d 11 -p tcp -e 1040 -c 0 -i 44 -a 0 -x {0.0 3.0 29 ------- null}
h -t 1.09150448 -s 0 -d 11 -p tcp -e 1040 -c 0 -i 44 -a 0 -x {0.0 3.0 -1 ------- null}
- -t 1.09158976 -s 0 -d 11 -p tcp -e 1040 -c 0 -i 45 -a 0 -x {0.0 3.0 30 ------- null}
h -t 1.09158976 -s 0 -d 11 -p tcp -e 1040 -c 0 -i 45 -a 0 -x {0.0 3.0 -1 ------- null}
r -t 1.11039888 -s 11 -d 3 -p tcp -e 1040 -c 0 -i 30 -a 0 -x {0.0 3.0 15 ------- null}
h -t 1.11039888 -s 3 -d 11 -p ack -e 40 -c 0 -i 46 -a 0 -x {3.0 0.0 15 ------- null}
r -t 1.11048416 -s 11 -d 3 -p tcp -e 1040 -c 0 -i 31 -a 0 -x {0.0 3.0 16 ------- null}
h -t 1.11048416 -s 3 -d 11 -p ack -e 40 -c 0 -i 47 -a 0 -x {3.0 0.0 16 ------- null}
r -t 1.11056944 -s 11 -d 3 -p tcp -e 1040 -c 0 -i 32 -a 0 -x {0.0 3.0 17 ------- null}
h -t 1.11056944 -s 3 -d 11 -p ack -e 40 -c 0 -i 48 -a 0 -x {3.0 0.0 17 ------- null}
r -t 1.11065472 -s 11 -d 3 -p tcp -e 1040 -c 0 -i 33 -a 0 -x {0.0 3.0 18 ------- null}
h -t 1.11065472 -s 3 -d 11 -p ack -e 40 -c 0 -i 49 -a 0 -x {3.0 0.0 18 ------- null}
r -t 1.11074 -s 11 -d 3 -p tcp -e 1040 -c 0 -i 34 -a 0 -x {0.0 3.0 19 ------- null}
h -t 1.11074 -s 3 -d 11 -p ack -e 40 -c 0 -i 50 -a 0 -x {3.0 0.0 19 ------- null}
r -t 1.11082528 -s 11 -d 3 -p tcp -e 1040 -c 0 -i 35 -a 0 -x {0.0 3.0 20 ------- null}
h -t 1.11082528 -s 3 -d 11 -p ack -e 40 -c 0 -i 51 -a 0 -x {3.0 0.0 20 ------- null}
r -t 1.11091056 -s 11 -d 3 -p tcp -e 1040 -c 0 -i 36 -a 0 -x {0.0 3.0 21 ------- null}
h -t 1.11091056 -s 3 -d 11 -p ack -e 40 -c 0 -i 52 -a 0 -x {3.0 0.0 21 ------- null}
r -t 1.11099584 -s 11 -d 3 -p tcp -e 1040 -c 0 -i 37 -a 0 -x {0.0 3.0 22 ------- null}
h -t 1.11099584 -s 3 -d 11 -p ack -e 40 -c 0 -i 53 -a 0 -x {3.0 0.0 22 ------- null}
r -t 1.11108112 -s 11 -d 3 -p tcp -e 1040 -c 0 -i 38 -a 0 -x {0.0 3.0 23 ------- null}
h -t 1.11108112 -s 3 -d 11 -p ack -e 40 -c 0 -i 54 -a 0 -x {3.0 0.0 23 ------- null}
r -t 1.1111664 -s 11 -d 3 -p tcp -e 1040 -c 0 -i 39 -a 0 -x {0.0 3.0 24 ------- null}
h -t 1.1111664 -s 3 -d 11 -p ack -e 40 -c 0 -i 55 -a 0 -x {3.0 0.0 24 ------- null}
r -t 1.11125168 -s 11 -d 3 -p tcp -e 1040 -c 0 -i 40 -a 0 -x {0.0 3.0 25 ------- null}
h -t 1.11125168 -s 3 -d 11 -p ack -e 40 -c 0 -i 56 -a 0 -x {3.0 0.0 25 ------- null}
r -t 1.11133696 -s 11 -d 3 -p tcp -e 1040 -c 0 -i 41 -a 0 -x {0.0 3.0 26 ------- null}
h -t 1.11133696 -s 3 -d 11 -p ack -e 40 -c 0 -i 57 -a 0 -x {3.0 0.0 26 ------- null}
r -t 1.11142224 -s 11 -d 3 -p tcp -e 1040 -c 0 -i 42 -a 0 -x {0.0 3.0 27 ------- null}
h -t 1.11142224 -s 3 -d 11 -p ack -e 40 -c 0 -i 58 -a 0 -x {3.0 0.0 27 ------- null}
r -t 1.11150752 -s 11 -d 3 -p tcp -e 1040 -c 0 -i 43 -a 0 -x {0.0 3.0 28 ------- null}
h -t 1.11150752 -s 3 -d 11 -p ack -e 40 -c 0 -i 59 -a 0 -x {3.0 0.0 28 ------- null}
r -t 1.1115928 -s 11 -d 3 -p tcp -e 1040 -c 0 -i 44 -a 0 -x {0.0 3.0 29 ------- null}
h -t 1.1115928 -s 3 -d 11 -p ack -e 40 -c 0 -i 60 -a 0 -x {3.0 0.0 29 ------- null}
r -t 1.11167808 -s 11 -d 3 -p tcp -e 1040 -c 0 -i 45 -a 0 -x {0.0 3.0 30 ------- null}
h -t 1.11167808 -s 3 -d 11 -p ack -e 40 -c 0 -i 61 -a 0 -x {3.0 0.0 30 ------- null}
+ -t 1.13039888 -s 3 -d 11 -p ack -e 40 -c 0 -i 46 -a 0 -x {3.0 0.0 15 ------- null}
- -t 1.13039888 -s 3 -d 11 -p ack -e 40 -c 0 -i 46 -a 0 -x {3.0 0.0 15 ------- null}
h -t 1.13039888 -s 3 -d 11 -p ack -e 40 -c 0 -i 46 -a 0 -x {3.0 0.0 -1 ------- null}
+ -t 1.13048416 -s 3 -d 11 -p ack -e 40 -c 0 -i 47 -a 0 -x {3.0 0.0 16 ------- null}
- -t 1.13048416 -s 3 -d 11 -p ack -e 40 -c 0 -i 47 -a 0 -x {3.0 0.0 16 ------- null}
h -t 1.13048416 -s 3 -d 11 -p ack -e 40 -c 0 -i 47 -a 0 -x {3.0 0.0 -1 ------- null}
+ -t 1.13056944 -s 3 -d 11 -p ack -e 40 -c 0 -i 48 -a 0 -x {3.0 0.0 17 ------- null}
- -t 1.13056944 -s 3 -d 11 -p ack -e 40 -c 0 -i 48 -a 0 -x {3.0 0.0 17 ------- null}
h -t 1.13056944 -s 3 -d 11 -p ack -e 40 -c 0 -i 48 -a 0 -x {3.0 0.0 -1 ------- null}
+ -t 1.13065472 -s 3 -d 11 -p ack -e 40 -c 0 -i 49 -a 0 -x {3.0 0.0 18 ------- null}
- -t 1.13065472 -s 3 -d 11 -p ack -e 40 -c 0 -i 49 -a 0 -x {3.0 0.0 18 ------- null}
h -t 1.13065472 -s 3 -d 11 -p ack -e 40 -c 0 -i 49 -a 0 -x {3.0 0.0 -1 ------- null}
+ -t 1.13074 -s 3 -d 11 -p ack -e 40 -c 0 -i 50 -a 0 -x {3.0 0.0 19 ------- null}
- -t 1.13074 -s 3 -d 11 -p ack -e 40 -c 0 -i 50 -a 0 -x {3.0 0.0 19 ------- null}
h -t 1.13074 -s 3 -d 11 -p ack -e 40 -c 0 -i 50 -a 0 -x {3.0 0.0 -1 ------- null}
+ -t 1.13082528 -s 3 -d 11 -p ack -e 40 -c 0 -i 51 -a 0 -x {3.0 0.0 20 ------- null}
- -t 1.13082528 -s 3 -d 11 -p ack -e 40 -c 0 -i 51 -a 0 -x {3.0 0.0 20 ------- null}
h -t 1.13082528 -s 3 -d 11 -p ack -e 40 -c 0 -i 51 -a 0 -x {3.0 0.0 -1 ------- null}
+ -t 1.13091056 -s 3 -d 11 -p ack -e 40 -c 0 -i 52 -a 0 -x {3.0 0.0 21 ------- null}
- -t 1.13091056 -s 3 -d 11 -p ack -e 40 -c 0 -i 52 -a 0 -x {3.0 0.0 21 ------- null}
h -t 1.13091056 -s 3 -d 11 -p ack -e 40 -c 0 -i 52 -a 0 -x {3.0 0.0 -1 ------- null}
+ -t 1.13099584 -s 3 -d 11 -p ack -e 40 -c 0 -i 53 -a 0 -x {3.0 0.0 22 ------- null}
- -t 1.13099584 -s 3 -d 11 -p ack -e 40 -c 0 -i 53 -a 0 -x {3.0 0.0 22 ------- null}
h -t 1.13099584 -s 3 -d 11 -p ack -e 40 -c 0 -i 53 -a 0 -x {3.0 0.0 -1 ------- null}
+ -t 1.13108112 -s 3 -d 11 -p ack -e 40 -c 0 -i 54 -a 0 -x {3.0 0.0 23 ------- null}
- -t 1.13108112 -s 3 -d 11 -p ack -e 40 -c 0 -i 54 -a 0 -x {3.0 0.0 23 ------- null}
h -t 1.13108112 -s 3 -d 11 -p ack -e 40 -c 0 -i 54 -a 0 -x {3.0 0.0 -1 ------- null}
+ -t 1.1311664 -s 3 -d 11 -p ack -e 40 -c 0 -i 55 -a 0 -x {3.0 0.0 24 ------- null}
- -t 1.1311664 -s 3 -d 11 -p ack -e 40 -c 0 -i 55 -a 0 -x {3.0 0.0 24 ------- null}
h -t 1.1311664 -s 3 -d 11 -p ack -e 40 -c 0 -i 55 -a 0 -x {3.0 0.0 -1 ------- null}
+ -t 1.13125168 -s 3 -d 11 -p ack -e 40 -c 0 -i 56 -a 0 -x {3.0 0.0 25 ------- null}
- -t 1.13125168 -s 3 -d 11 -p ack -e 40 -c 0 -i 56 -a 0 -x {3.0 0.0 25 ------- null}
h -t 1.13125168 -s 3 -d 11 -p ack -e 40 -c 0 -i 56 -a 0 -x {3.0 0.0 -1 ------- null}
+ -t 1.13133696 -s 3 -d 11 -p ack -e 40 -c 0 -i 57 -a 0 -x {3.0 0.0 26 ------- null}
- -t 1.13133696 -s 3 -d 11 -p ack -e 40 -c 0 -i 57 -a 0 -x {3.0 0.0 26 ------- null}
h -t 1.13133696 -s 3 -d 11 -p ack -e 40 -c 0 -i 57 -a 0 -x {3.0 0.0 -1 ------- null}
+ -t 1.13142224 -s 3 -d 11 -p ack -e 40 -c 0 -i 58 -a 0 -x {3.0 0.0 27 ------- null}
- -t 1.13142224 -s 3 -d 11 -p ack -e 40 -c 0 -i 58 -a 0 -x {3.0 0.0 27 ------- null}
h -t 1.13142224 -s 3 -d 11 -p ack -e 40 -c 0 -i 58 -a 0 -x {3.0 0.0 -1 ------- null}
+ -t 1.13150752 -s 3 -d 11 -p ack -e 40 -c 0 -i 59 -a 0 -x {3.0 0.0 28 ------- null}
- -t 1.13150752 -s 3 -d 11 -p ack -e 40 -c 0 -i 59 -a 0 -x {3.0 0.0 28 ------- null}
h -t 1.13150752 -s 3 -d 11 -p ack -e 40 -c 0 -i 59 -a 0 -x {3.0 0.0 -1 ------- null}
+ -t 1.1315928 -s 3 -d 11 -p ack -e 40 -c 0 -i 60 -a 0 -x {3.0 0.0 29 ------- null}
- -t 1.1315928 -s 3 -d 11 -p ack -e 40 -c 0 -i 60 -a 0 -x {3.0 0.0 29 ------- null}
h -t 1.1315928 -s 3 -d 11 -p ack -e 40 -c 0 -i 60 -a 0 -x {3.0 0.0 -1 ------- null}
+ -t 1.13167808 -s 3 -d 11 -p ack -e 40 -c 0 -i 61 -a 0 -x {3.0 0.0 30 ------- null}
- -t 1.13167808 -s 3 -d 11 -p ack -e 40 -c 0 -i 61 -a 0 -x {3.0 0.0 30 ------- null}
h -t 1.13167808 -s 3 -d 11 -p ack -e 40 -c 0 -i 61 -a 0 -x {3.0 0.0 -1 ------- null}
r -t 1.150408 -s 11 -d 0 -p ack -e 40 -c 0 -i 46 -a 0 -x {3.0 0.0 15 ------- null}
h -t 1.150408 -s 0 -d 11 -p tcp -e 1040 -c 0 -i 62 -a 0 -x {0.0 3.0 31 ------- null}
h -t 1.150408 -s 0 -d 11 -p tcp -e 1040 -c 0 -i 63 -a 0 -x {0.0 3.0 32 ------- null}
r -t 1.15049328 -s 11 -d 0 -p ack -e 40 -c 0 -i 47 -a 0 -x {3.0 0.0 16 ------- null}
h -t 1.15049328 -s 0 -d 11 -p tcp -e 1040 -c 0 -i 64 -a 0 -x {0.0 3.0 33 ------- null}
h -t 1.15049328 -s 0 -d 11 -p tcp -e 1040 -c 0 -i 65 -a 0 -x {0.0 3.0 34 ------- null}
r -t 1.15057856 -s 11 -d 0 -p ack -e 40 -c 0 -i 48 -a 0 -x {3.0 0.0 17 ------- null}
h -t 1.15057856 -s 0 -d 11 -p tcp -e 1040 -c 0 -i 66 -a 0 -x {0.0 3.0 35 ------- null}
h -t 1.15057856 -s 0 -d 11 -p tcp -e 1040 -c 0 -i 67 -a 0 -x {0.0 3.0 36 ------- null}
r -t 1.15066384 -s 11 -d 0 -p ack -e 40 -c 0 -i 49 -a 0 -x {3.0 0.0 18 ------- null}
h -t 1.15066384 -s 0 -d 11 -p tcp -e 1040 -c 0 -i 68 -a 0 -x {0.0 3.0 37 ------- null}
h -t 1.15066384 -s 0 -d 11 -p tcp -e 1040 -c 0 -i 69 -a 0 -x {0.0 3.0 38 ------- null}
r -t 1.15074912 -s 11 -d 0 -p ack -e 40 -c 0 -i 50 -a 0 -x {3.0 0.0 19 ------- null}
h -t 1.15074912 -s 0 -d 11 -p tcp -e 1040 -c 0 -i 70 -a 0 -x {0.0 3.0 39 ------- null}
r -t 1.1508344 -s 11 -d 0 -p ack -e 40 -c 0 -i 51 -a 0 -x {3.0 0.0 20 ------- null}
h -t 1.1508344 -s 0 -d 11 -p tcp -e 1040 -c 0 -i 71 -a 0 -x {0.0 3.0 40 ------- null}
r -t 1.15091968 -s 11 -d 0 -p ack -e 40 -c 0 -i 52 -a 0 -x {3.0 0.0 21 ------- null}
h -t 1.15091968 -s 0 -d 11 -p tcp -e 1040 -c 0 -i 72 -a 0 -x {0.0 3.0 41 ------- null}
r -t 1.15100496 -s 11 -d 0 -p ack -e 40 -c 0 -i 53 -a 0 -x {3.0 0.0 22 ------- null}
h -t 1.15100496 -s 0 -d 11 -p tcp -e 1040 -c 0 -i 73 -a 0 -x {0.0 3.0 42 ------- null}
r -t 1.15109024 -s 11 -d 0 -p ack -e 40 -c 0 -i 54 -a 0 -x {3.0 0.0 23 ------- null}
h -t 1.15109024 -s 0 -d 11 -p tcp -e 1040 -c 0 -i 74 -a 0 -x {0.0 3.0 43 ------- null}
r -t 1.15117552 -s 11 -d 0 -p ack -e 40 -c 0 -i 55 -a 0 -x {3.0 0.0 24 ------- null}
h -t 1.15117552 -s 0 -d 11 -p tcp -e 1040 -c 0 -i 75 -a 0 -x {0.0 3.0 44 ------- null}
r -t 1.1512608 -s 11 -d 0 -p ack -e 40 -c 0 -i 56 -a 0 -x {3.0 0.0 25 ------- null}
h -t 1.1512608 -s 0 -d 11 -p tcp -e 1040 -c 0 -i 76 -a 0 -x {0.0 3.0 45 ------- null}
r -t 1.15134608 -s 11 -d 0 -p ack -e 40 -c 0 -i 57 -a 0 -x {3.0 0.0 26 ------- null}
h -t 1.15134608 -s 0 -d 11 -p tcp -e 1040 -c 0 -i 77 -a 0 -x {0.0 3.0 46 ------- null}
r -t 1.15143136 -s 11 -d 0 -p ack -e 40 -c 0 -i 58 -a 0 -x {3.0 0.0 27 ------- null}
h -t 1.15143136 -s 0 -d 11 -p tcp -e 1040 -c 0 -i 78 -a 0 -x {0.0 3.0 47 ------- null}
r -t 1.15151664 -s 11 -d 0 -p ack -e 40 -c 0 -i 59 -a 0 -x {3.0 0.0 28 ------- null}
h -t 1.15151664 -s 0 -d 11 -p tcp -e 1040 -c 0 -i 79 -a 0 -x {0.0 3.0 48 ------- null}
r -t 1.15160192 -s 11 -d 0 -p ack -e 40 -c 0 -i 60 -a 0 -x {3.0 0.0 29 ------- null}
h -t 1.15160192 -s 0 -d 11 -p tcp -e 1040 -c 0 -i 80 -a 0 -x {0.0 3.0 49 ------- null}
r -t 1.1516872 -s 11 -d 0 -p ack -e 40 -c 0 -i 61 -a 0 -x {3.0 0.0 30 ------- null}
h -t 1.1516872 -s 0 -d 11 -p tcp -e 1040 -c 0 -i 81 -a 0 -x {0.0 3.0 50 ------- null}
+ -t 1.170408 -s 0 -d 11 -p tcp -e 1040 -c 0 -i 62 -a 0 -x {0.0 3.0 31 ------- null}
- -t 1.170408 -s 0 -d 11 -p tcp -e 1040 -c 0 -i 62 -a 0 -x {0.0 3.0 31 ------- null}
h -t 1.170408 -s 0 -d 11 -p tcp -e 1040 -c 0 -i 62 -a 0 -x {0.0 3.0 -1 ------- null}
+ -t 1.170408 -s 0 -d 11 -p tcp -e 1040 -c 0 -i 63 -a 0 -x {0.0 3.0 32 ------- null}
+ -t 1.17049328 -s 0 -d 11 -p tcp -e 1040 -c 0 -i 64 -a 0 -x {0.0 3.0 33 ------- null}
+ -t 1.17049328 -s 0 -d 11 -p tcp -e 1040 -c 0 -i 65 -a 0 -x {0.0 3.0 34 ------- null}
- -t 1.17049328 -s 0 -d 11 -p tcp -e 1040 -c 0 -i 63 -a 0 -x {0.0 3.0 32 ------- null}
h -t 1.17049328 -s 0 -d 11 -p tcp -e 1040 -c 0 -i 63 -a 0 -x {0.0 3.0 -1 ------- null}
+ -t 1.17057856 -s 0 -d 11 -p tcp -e 1040 -c 0 -i 66 -a 0 -x {0.0 3.0 35 ------- null}
+ -t 1.17057856 -s 0 -d 11 -p tcp -e 1040 -c 0 -i 67 -a 0 -x {0.0 3.0 36 ------- null}